/*--------------------------------*- C++ -*----------------------------------*\
| =========                 |                                                 |
| \\      /  F ield         | OpenFOAM: The Open Source CFD Toolbox           |
|  \\    /   O peration     | Version:  dev                                   |
|   \\  /    A nd           | Web:      www.OpenFOAM.org                      |
|    \\/     M anipulation  |                                                 |
\*---------------------------------------------------------------------------*/
FoamFile
{
    version     2.0;
    format      ascii;
    class       volScalarField;
    location    "13";
    object      p;
}
// * * * * * * * * * * * * * * * * * * * * * * * * * * * * * * * * * * * * * //

dimensions      [0 2 -2 0 0 0 0];

internalField   nonuniform List<scalar> 
400
(
3.23544e-08
-0.00582992
-0.0129684
-0.018421
-0.0204388
-0.0182452
-0.0117807
-0.00149041
0.0118308
0.0271427
0.043238
0.0588168
0.0725725
0.0833024
0.0900467
0.092261
0.0900198
0.0842378
0.0768745
0.0710609
0.00577614
-0.000223508
-0.00580965
-0.00954854
-0.0106052
-0.00843918
-0.00297653
0.0054675
0.0162963
0.0287052
0.0417434
0.0543797
0.0655802
0.0744038
0.0801141
0.0823096
0.0810711
0.0770486
0.0712679
0.0653116
0.0133298
0.00502815
-0.00100106
-0.00442908
-0.00527909
-0.00327029
0.00159581
0.00902095
0.0184954
0.0293427
0.040759
0.0518633
0.0617623
0.0696302
0.0748008
0.0768718
0.0758354
0.0720796
0.0657991
0.0575291
0.020134
0.00869032
0.00122003
-0.00267452
-0.00372826
-0.00189161
0.00272481
0.00977797
0.0187737
0.0290884
0.0399854
0.0506476
0.0602266
0.0679097
0.0729969
0.0749952
0.0737594
0.0694497
0.0615965
0.050096
0.0244965
0.00976743
0.000583904
-0.00399292
-0.00530835
-0.00351357
0.00116836
0.00832804
0.0174553
0.0279424
0.0390784
0.0500634
0.0600425
0.0681587
0.07362
0.0757914
0.0743625
0.0692833
0.059519
0.0445304
0.0251724
0.00714433
-0.0038079
-0.00906322
-0.0105183
-0.00850617
-0.0033631
0.00442302
0.0143068
0.0256724
0.0378071
0.0498967
0.0610416
0.0702967
0.0767282
0.0795105
0.0781325
0.072327
0.0605326
0.0418833
0.0210879
-0.000268104
-0.0129404
-0.0187153
-0.0200359
-0.0174201
-0.0113246
-0.00232599
0.00898402
0.0219697
0.035903
0.0499377
0.0631056
0.0743387
0.0825154
0.086563
0.0857142
0.0794406
0.0656138
0.043065
0.011137
-0.013624
-0.027881
-0.0338602
-0.0346096
-0.0308637
-0.0232191
-0.0123514
0.00109855
0.0164775
0.0330461
0.0499271
0.0660768
0.0802833
0.0911942
0.0974236
0.0978638
0.0916296
0.0758898
0.0491099
-0.00597312
-0.0342724
-0.049876
-0.0555546
-0.0550962
-0.0495207
-0.0395997
-0.0261195
-0.00976336
0.0088167
0.0288946
0.0495871
0.069791
0.088148
0.103041
0.112695
0.115544
0.110185
0.0928278
0.0614049
-0.0318633
-0.0638822
-0.0804229
-0.0850132
-0.0824262
-0.0740845
-0.0609871
-0.0440429
-0.0239578
-0.00134315
0.0231393
0.0486547
0.0740892
0.0979659
0.11839
0.133119
0.139982
0.136812
0.118434
0.0819274
-0.0686736
-0.10461
-0.121351
-0.123596
-0.117522
-0.105133
-0.0877244
-0.0663317
-0.0416432
-0.0141618
0.0155994
0.046947
0.0788495
0.109787
0.137618
0.159579
0.172721
0.173772
0.155514
0.113565
-0.119409
-0.159363
-0.174921
-0.172763
-0.161154
-0.142935
-0.119765
-0.0927831
-0.0625836
-0.0294538
0.00636699
0.0444674
0.084049
0.123697
0.16113
0.19308
0.215662
0.224071
0.208044
0.160626
-0.188634
-0.232248
-0.243945
-0.233954
-0.2137
-0.18716
-0.156378
-0.122507
-0.0859038
-0.0464781
-0.00402039
0.0415329
0.0898362
0.139823
0.189313
0.234683
0.271069
0.291658
0.281737
0.22977
-0.28398
-0.32931
-0.331837
-0.308286
-0.274714
-0.236445
-0.19577
-0.153615
-0.109846
-0.0637507
-0.0144434
0.0388579
0.0965487
0.158271
0.222369
0.285282
0.341392
0.38157
0.384909
0.331829
-0.419324
-0.459676
-0.442356
-0.395797
-0.342134
-0.287744
-0.234621
-0.182935
-0.131614
-0.0789899
-0.023219
0.0374702
0.104548
0.178833
0.259856
0.344965
0.428611
0.499695
0.52967
0.485386
-0.620536
-0.636748
-0.578682
-0.494198
-0.411245
-0.335663
-0.267785
-0.205982
-0.147541
-0.0893874
-0.0284305
0.0383438
0.113802
0.200467
0.299971
0.412021
0.533025
0.65177
0.732767
0.722391
-0.935928
-0.878519
-0.741746
-0.597952
-0.474397
-0.372663
-0.288872
-0.217767
-0.153957
-0.0924679
-0.0287214
0.0416916
0.123259
0.220714
0.338922
0.482151
0.651992
0.841337
1.01527
1.0975
-1.47643
-1.20663
-0.920507
-0.691392
-0.517309
-0.387548
-0.290065
-0.213341
-0.148128
-0.0872194
-0.0245815
0.0454536
0.128933
0.233067
0.367099
0.542674
0.771289
1.05931
1.40328
1.73014
-2.53965
-1.63055
-1.04444
-0.710962
-0.495754
-0.352097
-0.254534
-0.183587
-0.126173
-0.073599
-0.0192729
0.0427829
0.119208
0.218779
0.354808
0.54798
0.826389
1.23658
1.91167
2.92419
-4.36667
-2.04464
-0.973546
-0.563184
-0.35785
-0.24015
-0.170123
-0.123787
-0.087485
-0.0535141
-0.0166584
0.0276566
0.0846034
0.161725
0.272407
0.442095
0.718215
1.2257
2.41103
4.84853
)
;

boundaryField
{
    movingWall
    {
        type            zeroGradient;
    }
    fixedWalls
    {
        type            zeroGradient;
    }
    frontAndBack
    {
        type            empty;
    }
}


// ************************************************************************* //
