/*--------------------------------*- C++ -*----------------------------------*\
| =========                 |                                                 |
| \\      /  F ield         | OpenFOAM: The Open Source CFD Toolbox           |
|  \\    /   O peration     | Version:  dev                                   |
|   \\  /    A nd           | Web:      www.OpenFOAM.org                      |
|    \\/     M anipulation  |                                                 |
\*---------------------------------------------------------------------------*/
FoamFile
{
    version     2.0;
    format      ascii;
    class       volScalarField;
    location    "12";
    object      p;
}
// * * * * * * * * * * * * * * * * * * * * * * * * * * * * * * * * * * * * * //

dimensions      [0 2 -2 0 0 0 0];

internalField   nonuniform List<scalar> 
400
(
4.79069e-08
-0.00582991
-0.0129684
-0.018421
-0.0204387
-0.0182451
-0.0117806
-0.00149036
0.0118307
0.0271426
0.043238
0.0588168
0.0725726
0.0833025
0.0900469
0.092261
0.0900198
0.0842377
0.0768744
0.0710608
0.00577618
-0.000223473
-0.00580965
-0.00954856
-0.0106052
-0.00843914
-0.00297644
0.00546761
0.0162964
0.0287052
0.0417433
0.0543796
0.0655802
0.0744038
0.0801142
0.0823097
0.0810712
0.0770487
0.0712678
0.0653115
0.0133299
0.00502822
-0.00100102
-0.00442908
-0.00527914
-0.00327033
0.00159584
0.00902106
0.0184956
0.0293428
0.040759
0.0518633
0.0617622
0.0696301
0.0748008
0.0768719
0.0758355
0.0720797
0.0657992
0.057529
0.020134
0.00869039
0.00122012
-0.00267447
-0.00372828
-0.00189168
0.00272476
0.009778
0.0187738
0.0290885
0.0399855
0.0506476
0.0602266
0.0679096
0.0729969
0.0749952
0.0737595
0.0694498
0.0615966
0.050096
0.0244965
0.00976748
0.000584008
-0.00399282
-0.00530831
-0.00351362
0.00116827
0.00832798
0.0174554
0.0279425
0.0390785
0.0500635
0.0600425
0.0681587
0.0736199
0.0757913
0.0743625
0.0692834
0.0595191
0.0445305
0.0251723
0.00714433
-0.00380783
-0.00906309
-0.0105181
-0.00850613
-0.00336316
0.00442291
0.0143067
0.0256724
0.0378073
0.0498968
0.0610417
0.0702967
0.0767282
0.0795104
0.0781324
0.072327
0.0605327
0.0418834
0.0210878
-0.000268152
-0.0129404
-0.0187153
-0.0200358
-0.01742
-0.0113246
-0.00232606
0.00898391
0.0219696
0.0359031
0.0499378
0.0631057
0.0743389
0.0825155
0.086563
0.0857142
0.0794405
0.0656138
0.0430651
0.0111371
-0.0136241
-0.027881
-0.0338602
-0.0346095
-0.0308635
-0.0232189
-0.0123514
0.00109848
0.0164774
0.033046
0.0499271
0.0660769
0.0802835
0.0911943
0.0974236
0.0978638
0.0916295
0.0758897
0.0491099
-0.00597301
-0.0342724
-0.0498761
-0.0555547
-0.0550962
-0.0495206
-0.0395995
-0.0261194
-0.00976332
0.00881664
0.0288945
0.049587
0.069791
0.0881481
0.103041
0.112695
0.115544
0.110185
0.0928278
0.0614049
-0.0318631
-0.0638821
-0.080423
-0.0850133
-0.0824262
-0.0740844
-0.060987
-0.0440427
-0.0239576
-0.0013431
0.0231393
0.0486546
0.0740892
0.0979658
0.11839
0.133119
0.139982
0.136812
0.118434
0.0819274
-0.0686734
-0.104609
-0.121351
-0.123596
-0.117522
-0.105133
-0.0877244
-0.0663316
-0.0416431
-0.0141617
0.0155994
0.046947
0.0788495
0.109787
0.137617
0.159579
0.172721
0.173772
0.155514
0.113565
-0.119408
-0.159363
-0.174921
-0.172763
-0.161154
-0.142935
-0.119765
-0.0927831
-0.0625835
-0.0294536
0.00636713
0.0444675
0.0840491
0.123697
0.16113
0.19308
0.215662
0.224071
0.208045
0.160627
-0.188634
-0.232248
-0.243944
-0.233954
-0.2137
-0.18716
-0.156378
-0.122507
-0.0859038
-0.046478
-0.00402028
0.041533
0.0898363
0.139823
0.189313
0.234683
0.271069
0.291658
0.281737
0.22977
-0.28398
-0.32931
-0.331837
-0.308285
-0.274714
-0.236445
-0.19577
-0.153616
-0.109846
-0.0637507
-0.0144434
0.0388579
0.0965488
0.158271
0.222369
0.285282
0.341392
0.38157
0.384909
0.331829
-0.419324
-0.459676
-0.442356
-0.395797
-0.342134
-0.287744
-0.234621
-0.182935
-0.131614
-0.07899
-0.0232191
0.0374703
0.104548
0.178833
0.259856
0.344965
0.428611
0.499695
0.52967
0.485386
-0.620536
-0.636748
-0.578682
-0.494198
-0.411245
-0.335663
-0.267785
-0.205982
-0.147541
-0.0893874
-0.0284305
0.0383438
0.113802
0.200467
0.299971
0.412021
0.533025
0.651771
0.732767
0.722391
-0.935928
-0.878519
-0.741746
-0.597953
-0.474397
-0.372663
-0.288872
-0.217767
-0.153957
-0.0924679
-0.0287213
0.0416916
0.123259
0.220714
0.338922
0.482151
0.651993
0.841338
1.01527
1.0975
-1.47643
-1.20663
-0.920507
-0.691392
-0.517309
-0.387548
-0.290065
-0.213341
-0.148128
-0.0872193
-0.0245815
0.0454536
0.128933
0.233067
0.367099
0.542674
0.771289
1.05931
1.40328
1.73014
-2.53965
-1.63055
-1.04444
-0.710962
-0.495754
-0.352097
-0.254534
-0.183587
-0.126173
-0.0735989
-0.0192729
0.042783
0.119208
0.218779
0.354808
0.54798
0.826389
1.23658
1.91167
2.92419
-4.36667
-2.04464
-0.973546
-0.563184
-0.35785
-0.24015
-0.170123
-0.123787
-0.087485
-0.0535141
-0.0166584
0.0276567
0.0846035
0.161726
0.272407
0.442095
0.718215
1.2257
2.41103
4.84853
)
;

boundaryField
{
    movingWall
    {
        type            zeroGradient;
    }
    fixedWalls
    {
        type            zeroGradient;
    }
    frontAndBack
    {
        type            empty;
    }
}


// ************************************************************************* //
