/*--------------------------------*- C++ -*----------------------------------*\
| =========                 |                                                 |
| \\      /  F ield         | OpenFOAM: The Open Source CFD Toolbox           |
|  \\    /   O peration     | Version:  dev                                   |
|   \\  /    A nd           | Web:      www.OpenFOAM.org                      |
|    \\/     M anipulation  |                                                 |
\*---------------------------------------------------------------------------*/
FoamFile
{
    version     2.0;
    format      ascii;
    class       volScalarField;
    location    "10.4";
    object      p;
}
// * * * * * * * * * * * * * * * * * * * * * * * * * * * * * * * * * * * * * //

dimensions      [0 2 -2 0 0 0 0];

internalField   nonuniform List<scalar> 
400
(
8.69776e-08
-0.00582983
-0.0129683
-0.0184209
-0.0204386
-0.0182451
-0.0117806
-0.00149035
0.0118308
0.0271428
0.0432382
0.0588169
0.0725726
0.0833025
0.0900468
0.092261
0.0900198
0.0842379
0.0768746
0.0710611
0.00577624
-0.000223423
-0.00580957
-0.00954845
-0.0106051
-0.00843903
-0.0029764
0.0054676
0.0162964
0.0287053
0.0417435
0.0543798
0.0655804
0.0744039
0.0801143
0.0823097
0.0810712
0.0770487
0.071268
0.0653117
0.0133299
0.00502825
-0.00100099
-0.00442901
-0.005279
-0.00327016
0.00159597
0.0090211
0.0184955
0.0293428
0.040759
0.0518634
0.0617624
0.0696303
0.074801
0.076872
0.0758355
0.0720797
0.0657992
0.0575292
0.0201341
0.00869044
0.00122013
-0.00267446
-0.0037282
-0.00189152
0.00272495
0.00977814
0.0187739
0.0290885
0.0399855
0.0506476
0.0602267
0.0679098
0.0729971
0.0749954
0.0737596
0.0694498
0.0615966
0.0500961
0.0244967
0.00976757
0.000584031
-0.00399284
-0.0053083
-0.00351352
0.00116845
0.00832818
0.0174555
0.0279426
0.0390785
0.0500635
0.0600425
0.0681588
0.0736201
0.0757915
0.0743627
0.0692834
0.0595191
0.0445305
0.0251725
0.00714447
-0.00380775
-0.00906309
-0.0105182
-0.00850613
-0.00336305
0.00442311
0.014307
0.0256726
0.0378073
0.0498968
0.0610416
0.0702967
0.0767283
0.0795106
0.0781326
0.0723271
0.0605328
0.0418834
0.0210879
-0.000267996
-0.0129402
-0.0187152
-0.0200358
-0.01742
-0.0113246
-0.00232595
0.00898411
0.0219698
0.0359032
0.0499379
0.0631057
0.0743388
0.0825155
0.0865631
0.0857143
0.0794407
0.0656139
0.0430651
0.0111371
-0.0136239
-0.0278808
-0.0338601
-0.0346095
-0.0308635
-0.023219
-0.0123514
0.00109859
0.0164776
0.0330462
0.0499272
0.0660769
0.0802835
0.0911943
0.0974236
0.0978639
0.0916297
0.0758899
0.04911
-0.00597304
-0.0342724
-0.0498759
-0.0555545
-0.055096
-0.0495206
-0.0395996
-0.0261195
-0.00976333
0.00881674
0.0288947
0.0495872
0.0697912
0.0881482
0.103041
0.112695
0.115544
0.110185
0.0928279
0.061405
-0.0318631
-0.0638821
-0.0804229
-0.0850131
-0.082426
-0.0740843
-0.0609869
-0.0440427
-0.0239577
-0.00134311
0.0231394
0.0486548
0.0740894
0.097966
0.11839
0.133119
0.139982
0.136812
0.118434
0.0819275
-0.0686734
-0.104609
-0.121351
-0.123596
-0.117521
-0.105133
-0.0877242
-0.0663315
-0.0416431
-0.0141618
0.0155994
0.046947
0.0788496
0.109787
0.137618
0.15958
0.172721
0.173772
0.155514
0.113565
-0.119408
-0.159363
-0.174921
-0.172763
-0.161154
-0.142935
-0.119765
-0.0927829
-0.0625834
-0.0294537
0.00636708
0.0444674
0.0840491
0.123697
0.16113
0.19308
0.215662
0.224071
0.208045
0.160627
-0.188634
-0.232248
-0.243944
-0.233954
-0.2137
-0.18716
-0.156378
-0.122507
-0.0859036
-0.0464779
-0.00402025
0.041533
0.0898363
0.139824
0.189313
0.234683
0.271069
0.291659
0.281737
0.22977
-0.28398
-0.32931
-0.331837
-0.308285
-0.274714
-0.236445
-0.19577
-0.153615
-0.109845
-0.0637505
-0.0144433
0.038858
0.0965488
0.158271
0.222369
0.285282
0.341392
0.38157
0.384909
0.331829
-0.419324
-0.459676
-0.442355
-0.395797
-0.342134
-0.287744
-0.234621
-0.182935
-0.131614
-0.0789898
-0.0232189
0.0374704
0.104548
0.178833
0.259856
0.344965
0.428611
0.499695
0.52967
0.485386
-0.620536
-0.636748
-0.578681
-0.494197
-0.411245
-0.335663
-0.267785
-0.205982
-0.147541
-0.0893873
-0.0284304
0.0383439
0.113802
0.200467
0.299971
0.412021
0.533025
0.651771
0.732767
0.722391
-0.935928
-0.878519
-0.741746
-0.597952
-0.474397
-0.372663
-0.288872
-0.217767
-0.153957
-0.0924679
-0.0287213
0.0416917
0.123259
0.220714
0.338922
0.482151
0.651993
0.841338
1.01527
1.0975
-1.47643
-1.20663
-0.920507
-0.691391
-0.517308
-0.387547
-0.290065
-0.213341
-0.148128
-0.0872193
-0.0245814
0.0454536
0.128934
0.233067
0.367099
0.542674
0.771289
1.05931
1.40328
1.73014
-2.53965
-1.63055
-1.04444
-0.710962
-0.495754
-0.352097
-0.254534
-0.183587
-0.126173
-0.0735988
-0.0192728
0.042783
0.119208
0.218779
0.354808
0.54798
0.826389
1.23658
1.91167
2.92419
-4.36667
-2.04464
-0.973546
-0.563184
-0.35785
-0.24015
-0.170123
-0.123786
-0.0874849
-0.053514
-0.0166583
0.0276568
0.0846035
0.161726
0.272407
0.442095
0.718215
1.2257
2.41103
4.84853
)
;

boundaryField
{
    movingWall
    {
        type            zeroGradient;
    }
    fixedWalls
    {
        type            zeroGradient;
    }
    frontAndBack
    {
        type            empty;
    }
}


// ************************************************************************* //
