/*--------------------------------*- C++ -*----------------------------------*\
| =========                 |                                                 |
| \\      /  F ield         | OpenFOAM: The Open Source CFD Toolbox           |
|  \\    /   O peration     | Version:  dev                                   |
|   \\  /    A nd           | Web:      www.OpenFOAM.org                      |
|    \\/     M anipulation  |                                                 |
\*---------------------------------------------------------------------------*/
FoamFile
{
    version     2.0;
    format      ascii;
    class       volScalarField;
    location    "15.6";
    object      p;
}
// * * * * * * * * * * * * * * * * * * * * * * * * * * * * * * * * * * * * * //

dimensions      [0 2 -2 0 0 0 0];

internalField   nonuniform List<scalar> 
400
(
1.06545e-08
-0.00582996
-0.0129685
-0.018421
-0.0204387
-0.0182452
-0.0117807
-0.00149051
0.0118306
0.0271426
0.043238
0.0588168
0.0725725
0.0833024
0.0900467
0.0922609
0.0900197
0.0842377
0.0768744
0.0710609
0.00577612
-0.000223563
-0.00580972
-0.0095486
-0.0106052
-0.00843916
-0.00297651
0.00546748
0.0162962
0.0287051
0.0417433
0.0543796
0.0655802
0.0744038
0.0801142
0.0823096
0.0810711
0.0770486
0.0712678
0.0653115
0.0133298
0.00502812
-0.00100114
-0.00442917
-0.00527917
-0.00327031
0.00159585
0.00902099
0.0184954
0.0293426
0.0407589
0.0518632
0.0617622
0.0696302
0.0748008
0.0768719
0.0758354
0.0720795
0.0657991
0.057529
0.020134
0.00869032
0.00121999
-0.00267461
-0.00372837
-0.00189169
0.0027248
0.00977802
0.0187738
0.0290884
0.0399854
0.0506475
0.0602265
0.0679096
0.0729969
0.0749952
0.0737595
0.0694497
0.0615964
0.0500959
0.0244965
0.00976744
0.000583915
-0.00399297
-0.00530846
-0.00351371
0.00116827
0.00832803
0.0174554
0.0279425
0.0390784
0.0500633
0.0600423
0.0681586
0.0736199
0.0757913
0.0743626
0.0692833
0.059519
0.0445304
0.0251723
0.00714433
-0.00380787
-0.0090632
-0.0105183
-0.0085063
-0.00336324
0.00442293
0.0143068
0.0256724
0.0378072
0.0498967
0.0610415
0.0702966
0.0767281
0.0795104
0.0781324
0.072327
0.0605327
0.0418833
0.0210878
-0.000268158
-0.0129404
-0.0187153
-0.0200359
-0.0174202
-0.0113247
-0.00232615
0.00898393
0.0219697
0.0359031
0.0499378
0.0631056
0.0743387
0.0825153
0.0865629
0.0857142
0.0794405
0.0656138
0.043065
0.0111369
-0.0136241
-0.027881
-0.0338602
-0.0346096
-0.0308636
-0.0232191
-0.0123516
0.00109839
0.0164774
0.033046
0.0499271
0.0660768
0.0802834
0.0911942
0.0974235
0.0978637
0.0916295
0.0758897
0.0491099
-0.00597317
-0.0342725
-0.0498761
-0.0555546
-0.0550962
-0.0495207
-0.0395997
-0.0261196
-0.0097635
0.00881655
0.0288945
0.049587
0.069791
0.0881481
0.103041
0.112695
0.115544
0.110185
0.0928278
0.0614049
-0.0318633
-0.0638823
-0.0804231
-0.0850133
-0.0824262
-0.0740844
-0.060987
-0.0440428
-0.0239578
-0.00134328
0.0231392
0.0486546
0.0740892
0.0979659
0.11839
0.133119
0.139982
0.136812
0.118434
0.0819274
-0.0686735
-0.10461
-0.121351
-0.123596
-0.117522
-0.105133
-0.0877243
-0.0663316
-0.0416432
-0.0141619
0.0155992
0.0469469
0.0788494
0.109787
0.137617
0.159579
0.172721
0.173772
0.155514
0.113565
-0.119408
-0.159363
-0.174921
-0.172763
-0.161154
-0.142935
-0.119765
-0.092783
-0.0625835
-0.0294538
0.00636696
0.0444673
0.0840489
0.123697
0.16113
0.19308
0.215662
0.224071
0.208044
0.160626
-0.188634
-0.232248
-0.243945
-0.233954
-0.2137
-0.18716
-0.156378
-0.122507
-0.0859037
-0.046478
-0.00402036
0.0415329
0.0898362
0.139823
0.189313
0.234683
0.271069
0.291658
0.281737
0.22977
-0.28398
-0.32931
-0.331837
-0.308286
-0.274714
-0.236445
-0.19577
-0.153616
-0.109846
-0.0637507
-0.0144434
0.0388579
0.0965487
0.158271
0.222369
0.285282
0.341392
0.381569
0.384908
0.331829
-0.419324
-0.459676
-0.442356
-0.395797
-0.342134
-0.287744
-0.234621
-0.182935
-0.131614
-0.07899
-0.023219
0.0374703
0.104548
0.178833
0.259856
0.344965
0.428611
0.499695
0.52967
0.485386
-0.620537
-0.636748
-0.578682
-0.494198
-0.411245
-0.335663
-0.267785
-0.205982
-0.147541
-0.0893875
-0.0284306
0.0383438
0.113802
0.200467
0.299971
0.41202
0.533025
0.65177
0.732767
0.722391
-0.935928
-0.878519
-0.741746
-0.597953
-0.474397
-0.372663
-0.288872
-0.217767
-0.153957
-0.092468
-0.0287214
0.0416915
0.123259
0.220714
0.338922
0.48215
0.651992
0.841337
1.01527
1.0975
-1.47643
-1.20663
-0.920507
-0.691392
-0.517309
-0.387548
-0.290065
-0.213341
-0.148128
-0.0872194
-0.0245816
0.0454535
0.128933
0.233067
0.367099
0.542674
0.771289
1.05931
1.40328
1.73014
-2.53965
-1.63055
-1.04444
-0.710962
-0.495754
-0.352097
-0.254534
-0.183587
-0.126173
-0.073599
-0.019273
0.0427829
0.119208
0.218779
0.354808
0.54798
0.826389
1.23658
1.91167
2.92419
-4.36667
-2.04464
-0.973546
-0.563184
-0.35785
-0.24015
-0.170123
-0.123787
-0.087485
-0.0535141
-0.0166584
0.0276566
0.0846034
0.161725
0.272407
0.442095
0.718215
1.2257
2.41103
4.84853
)
;

boundaryField
{
    movingWall
    {
        type            zeroGradient;
    }
    fixedWalls
    {
        type            zeroGradient;
    }
    frontAndBack
    {
        type            empty;
    }
}


// ************************************************************************* //
