/*--------------------------------*- C++ -*----------------------------------*\
| =========                 |                                                 |
| \\      /  F ield         | OpenFOAM: The Open Source CFD Toolbox           |
|  \\    /   O peration     | Version:  dev                                   |
|   \\  /    A nd           | Web:      www.OpenFOAM.org                      |
|    \\/     M anipulation  |                                                 |
\*---------------------------------------------------------------------------*/
FoamFile
{
    version     2.0;
    format      ascii;
    class       volScalarField;
    location    "11.8";
    object      p;
}
// * * * * * * * * * * * * * * * * * * * * * * * * * * * * * * * * * * * * * //

dimensions      [0 2 -2 0 0 0 0];

internalField   nonuniform List<scalar> 
400
(
5.00861e-08
-0.00582989
-0.0129684
-0.0184209
-0.0204387
-0.0182451
-0.0117806
-0.00149043
0.0118307
0.0271427
0.0432381
0.0588169
0.0725726
0.0833025
0.0900468
0.0922609
0.0900198
0.0842378
0.0768745
0.071061
0.00577618
-0.000223493
-0.00580965
-0.00954853
-0.0106052
-0.00843909
-0.00297644
0.00546754
0.0162963
0.0287052
0.0417434
0.0543797
0.0655803
0.0744039
0.0801142
0.0823097
0.0810711
0.0770486
0.0712679
0.0653116
0.0133299
0.00502819
-0.00100107
-0.0044291
-0.00527909
-0.00327023
0.00159592
0.00902106
0.0184955
0.0293427
0.0407589
0.0518633
0.0617623
0.0696302
0.0748009
0.0768719
0.0758354
0.0720796
0.0657991
0.0575291
0.0201341
0.00869039
0.00122006
-0.00267454
-0.00372829
-0.00189161
0.00272488
0.00977809
0.0187738
0.0290885
0.0399854
0.0506475
0.0602266
0.0679097
0.072997
0.0749953
0.0737595
0.0694498
0.0615965
0.050096
0.0244966
0.00976751
0.000583981
-0.0039929
-0.00530839
-0.00351362
0.00116836
0.00832811
0.0174555
0.0279425
0.0390784
0.0500634
0.0600424
0.0681587
0.07362
0.0757914
0.0743626
0.0692834
0.059519
0.0445305
0.0251724
0.0071444
-0.0038078
-0.00906314
-0.0105182
-0.00850622
-0.00336316
0.00442301
0.0143069
0.0256725
0.0378073
0.0498968
0.0610416
0.0702966
0.0767282
0.0795105
0.0781325
0.0723271
0.0605327
0.0418834
0.0210878
-0.000268077
-0.0129403
-0.0187152
-0.0200358
-0.0174201
-0.0113247
-0.00232606
0.00898401
0.0219697
0.0359032
0.0499379
0.0631056
0.0743388
0.0825154
0.086563
0.0857142
0.0794406
0.0656138
0.0430651
0.011137
-0.013624
-0.0278809
-0.0338601
-0.0346095
-0.0308636
-0.0232191
-0.0123515
0.00109848
0.0164775
0.0330461
0.0499272
0.0660769
0.0802834
0.0911942
0.0974235
0.0978638
0.0916296
0.0758898
0.04911
-0.00597311
-0.0342725
-0.049876
-0.0555545
-0.0550961
-0.0495206
-0.0395996
-0.0261196
-0.00976342
0.00881664
0.0288946
0.0495871
0.0697911
0.0881482
0.103041
0.112695
0.115544
0.110185
0.0928278
0.061405
-0.0318632
-0.0638822
-0.080423
-0.0850132
-0.0824261
-0.0740843
-0.060987
-0.0440428
-0.0239578
-0.0013432
0.0231393
0.0486547
0.0740893
0.0979659
0.11839
0.133119
0.139982
0.136812
0.118434
0.0819275
-0.0686734
-0.104609
-0.121351
-0.123596
-0.117522
-0.105133
-0.0877243
-0.0663316
-0.0416431
-0.0141618
0.0155993
0.0469469
0.0788495
0.109787
0.137618
0.159579
0.172721
0.173772
0.155514
0.113565
-0.119408
-0.159363
-0.174921
-0.172763
-0.161154
-0.142935
-0.119765
-0.0927829
-0.0625834
-0.0294537
0.00636703
0.0444674
0.084049
0.123697
0.16113
0.19308
0.215662
0.224071
0.208044
0.160626
-0.188634
-0.232248
-0.243944
-0.233954
-0.2137
-0.18716
-0.156378
-0.122507
-0.0859037
-0.046478
-0.0040203
0.041533
0.0898363
0.139823
0.189313
0.234683
0.271069
0.291658
0.281737
0.22977
-0.28398
-0.32931
-0.331837
-0.308285
-0.274714
-0.236445
-0.19577
-0.153615
-0.109846
-0.0637506
-0.0144433
0.0388579
0.0965488
0.158271
0.222369
0.285282
0.341392
0.38157
0.384909
0.331829
-0.419324
-0.459676
-0.442355
-0.395797
-0.342134
-0.287744
-0.234621
-0.182935
-0.131614
-0.0789899
-0.023219
0.0374703
0.104548
0.178833
0.259856
0.344965
0.428611
0.499695
0.52967
0.485386
-0.620536
-0.636748
-0.578682
-0.494197
-0.411245
-0.335663
-0.267785
-0.205982
-0.147541
-0.0893874
-0.0284305
0.0383439
0.113802
0.200467
0.299971
0.412021
0.533025
0.651771
0.732767
0.722391
-0.935928
-0.878519
-0.741746
-0.597952
-0.474397
-0.372663
-0.288872
-0.217767
-0.153957
-0.0924679
-0.0287214
0.0416916
0.123259
0.220714
0.338922
0.482151
0.651993
0.841338
1.01527
1.0975
-1.47643
-1.20663
-0.920507
-0.691392
-0.517309
-0.387547
-0.290065
-0.213341
-0.148128
-0.0872193
-0.0245815
0.0454536
0.128933
0.233067
0.367099
0.542674
0.771289
1.05931
1.40328
1.73014
-2.53965
-1.63055
-1.04444
-0.710962
-0.495754
-0.352097
-0.254534
-0.183587
-0.126173
-0.0735989
-0.0192729
0.042783
0.119208
0.218779
0.354808
0.54798
0.826389
1.23658
1.91167
2.92419
-4.36667
-2.04464
-0.973546
-0.563184
-0.35785
-0.24015
-0.170123
-0.123787
-0.087485
-0.0535141
-0.0166583
0.0276567
0.0846035
0.161726
0.272407
0.442095
0.718215
1.2257
2.41103
4.84853
)
;

boundaryField
{
    movingWall
    {
        type            zeroGradient;
    }
    fixedWalls
    {
        type            zeroGradient;
    }
    frontAndBack
    {
        type            empty;
    }
}


// ************************************************************************* //
