/*--------------------------------*- C++ -*----------------------------------*\
| =========                 |                                                 |
| \\      /  F ield         | OpenFOAM: The Open Source CFD Toolbox           |
|  \\    /   O peration     | Version:  dev                                   |
|   \\  /    A nd           | Web:      www.OpenFOAM.org                      |
|    \\/     M anipulation  |                                                 |
\*---------------------------------------------------------------------------*/
FoamFile
{
    version     2.0;
    format      ascii;
    class       volScalarField;
    location    "10.9";
    object      p;
}
// * * * * * * * * * * * * * * * * * * * * * * * * * * * * * * * * * * * * * //

dimensions      [0 2 -2 0 0 0 0];

internalField   nonuniform List<scalar> 
400
(
7.13381e-08
-0.00582986
-0.0129684
-0.0184209
-0.0204386
-0.0182451
-0.0117806
-0.00149039
0.0118307
0.0271427
0.0432381
0.0588169
0.0725727
0.0833025
0.0900469
0.092261
0.0900198
0.0842378
0.0768745
0.071061
0.00577622
-0.000223453
-0.00580962
-0.0095485
-0.0106051
-0.00843904
-0.00297638
0.00546761
0.0162963
0.0287052
0.0417434
0.0543797
0.0655803
0.0744039
0.0801143
0.0823097
0.0810712
0.0770487
0.0712679
0.0653116
0.0133299
0.00502824
-0.00100102
-0.00442907
-0.00527907
-0.00327021
0.00159596
0.00902113
0.0184956
0.0293428
0.040759
0.0518633
0.0617623
0.0696303
0.074801
0.076872
0.0758355
0.0720797
0.0657992
0.0575291
0.0201341
0.00869044
0.00122012
-0.0026745
-0.00372827
-0.0018916
0.0027249
0.00977814
0.0187739
0.0290885
0.0399855
0.0506476
0.0602266
0.0679097
0.072997
0.0749953
0.0737596
0.0694498
0.0615966
0.050096
0.0244966
0.00976756
0.000584046
-0.00399284
-0.00530835
-0.00351361
0.00116836
0.00832813
0.0174555
0.0279426
0.0390785
0.0500635
0.0600424
0.0681587
0.07362
0.0757914
0.0743627
0.0692834
0.0595191
0.0445305
0.0251724
0.00714444
-0.00380774
-0.00906306
-0.0105182
-0.00850618
-0.00336315
0.00442301
0.0143069
0.0256726
0.0378073
0.0498968
0.0610416
0.0702967
0.0767282
0.0795105
0.0781325
0.0723271
0.0605328
0.0418834
0.0210879
-0.00026806
-0.0129403
-0.0187152
-0.0200358
-0.01742
-0.0113246
-0.00232606
0.00898401
0.0219698
0.0359032
0.0499379
0.0631057
0.0743388
0.0825154
0.086563
0.0857142
0.0794406
0.0656139
0.0430651
0.011137
-0.013624
-0.0278809
-0.0338601
-0.0346094
-0.0308635
-0.023219
-0.0123515
0.00109848
0.0164775
0.0330461
0.0499272
0.066077
0.0802835
0.0911943
0.0974236
0.0978638
0.0916296
0.0758898
0.04911
-0.00597304
-0.0342724
-0.049876
-0.0555545
-0.055096
-0.0495205
-0.0395995
-0.0261195
-0.00976338
0.00881664
0.0288946
0.0495871
0.0697911
0.0881482
0.103041
0.112695
0.115544
0.110185
0.0928279
0.061405
-0.0318631
-0.0638822
-0.080423
-0.0850132
-0.0824261
-0.0740843
-0.0609869
-0.0440427
-0.0239577
-0.00134316
0.0231393
0.0486547
0.0740893
0.097966
0.11839
0.133119
0.139982
0.136812
0.118434
0.0819275
-0.0686734
-0.104609
-0.121351
-0.123596
-0.117522
-0.105133
-0.0877242
-0.0663315
-0.0416431
-0.0141617
0.0155994
0.046947
0.0788495
0.109787
0.137618
0.159579
0.172721
0.173772
0.155514
0.113565
-0.119408
-0.159363
-0.174921
-0.172763
-0.161154
-0.142935
-0.119765
-0.0927829
-0.0625834
-0.0294536
0.0063671
0.0444674
0.084049
0.123697
0.16113
0.19308
0.215662
0.224071
0.208045
0.160627
-0.188634
-0.232248
-0.243944
-0.233954
-0.2137
-0.18716
-0.156378
-0.122507
-0.0859036
-0.0464779
-0.00402023
0.041533
0.0898363
0.139823
0.189313
0.234683
0.271069
0.291659
0.281737
0.22977
-0.28398
-0.32931
-0.331837
-0.308285
-0.274714
-0.236445
-0.19577
-0.153615
-0.109846
-0.0637506
-0.0144433
0.038858
0.0965488
0.158271
0.222369
0.285282
0.341392
0.38157
0.384909
0.331829
-0.419324
-0.459676
-0.442355
-0.395797
-0.342134
-0.287744
-0.234621
-0.182935
-0.131614
-0.0789899
-0.0232189
0.0374704
0.104548
0.178833
0.259856
0.344965
0.428611
0.499695
0.52967
0.485386
-0.620536
-0.636748
-0.578682
-0.494197
-0.411245
-0.335663
-0.267785
-0.205982
-0.147541
-0.0893874
-0.0284305
0.0383439
0.113802
0.200467
0.299971
0.412021
0.533025
0.651771
0.732767
0.722391
-0.935928
-0.878519
-0.741746
-0.597952
-0.474397
-0.372663
-0.288872
-0.217767
-0.153957
-0.0924679
-0.0287213
0.0416916
0.123259
0.220714
0.338922
0.482151
0.651993
0.841338
1.01527
1.0975
-1.47643
-1.20663
-0.920507
-0.691392
-0.517309
-0.387547
-0.290065
-0.213341
-0.148128
-0.0872193
-0.0245814
0.0454536
0.128934
0.233067
0.367099
0.542674
0.771289
1.05931
1.40328
1.73014
-2.53965
-1.63055
-1.04444
-0.710962
-0.495754
-0.352097
-0.254534
-0.183587
-0.126173
-0.0735988
-0.0192728
0.042783
0.119208
0.218779
0.354808
0.54798
0.826389
1.23658
1.91167
2.92419
-4.36667
-2.04464
-0.973546
-0.563184
-0.35785
-0.24015
-0.170123
-0.123787
-0.0874849
-0.053514
-0.0166583
0.0276568
0.0846035
0.161726
0.272407
0.442095
0.718215
1.2257
2.41103
4.84853
)
;

boundaryField
{
    movingWall
    {
        type            zeroGradient;
    }
    fixedWalls
    {
        type            zeroGradient;
    }
    frontAndBack
    {
        type            empty;
    }
}


// ************************************************************************* //
