/*--------------------------------*- C++ -*----------------------------------*\
| =========                 |                                                 |
| \\      /  F ield         | OpenFOAM: The Open Source CFD Toolbox           |
|  \\    /   O peration     | Version:  dev                                   |
|   \\  /    A nd           | Web:      www.OpenFOAM.org                      |
|    \\/     M anipulation  |                                                 |
\*---------------------------------------------------------------------------*/
FoamFile
{
    version     2.0;
    format      ascii;
    class       volScalarField;
    location    "12.9";
    object      p;
}
// * * * * * * * * * * * * * * * * * * * * * * * * * * * * * * * * * * * * * //

dimensions      [0 2 -2 0 0 0 0];

internalField   nonuniform List<scalar> 
400
(
3.37503e-08
-0.00582993
-0.0129685
-0.018421
-0.0204387
-0.0182451
-0.0117806
-0.00149041
0.0118307
0.0271426
0.043238
0.0588168
0.0725726
0.0833025
0.0900468
0.092261
0.0900197
0.0842377
0.0768744
0.0710608
0.00577616
-0.000223505
-0.00580968
-0.00954859
-0.0106052
-0.00843915
-0.00297646
0.00546757
0.0162963
0.0287052
0.0417433
0.0543796
0.0655802
0.0744038
0.0801142
0.0823097
0.0810712
0.0770486
0.0712678
0.0653115
0.0133298
0.00502819
-0.00100106
-0.00442913
-0.00527917
-0.00327034
0.00159584
0.00902105
0.0184955
0.0293428
0.0407589
0.0518632
0.0617622
0.0696301
0.0748008
0.0768719
0.0758355
0.0720797
0.0657991
0.057529
0.020134
0.00869037
0.00122008
-0.00267452
-0.00372833
-0.00189171
0.00272476
0.00977801
0.0187738
0.0290885
0.0399855
0.0506476
0.0602265
0.0679096
0.0729969
0.0749952
0.0737595
0.0694498
0.0615965
0.050096
0.0244965
0.00976747
0.000583987
-0.00399286
-0.00530836
-0.00351367
0.00116825
0.00832798
0.0174554
0.0279425
0.0390785
0.0500635
0.0600424
0.0681586
0.0736199
0.0757913
0.0743625
0.0692833
0.0595191
0.0445305
0.0251723
0.00714432
-0.00380784
-0.00906312
-0.0105182
-0.00850619
-0.0033632
0.00442289
0.0143068
0.0256724
0.0378073
0.0498968
0.0610416
0.0702967
0.0767281
0.0795104
0.0781324
0.072327
0.0605327
0.0418834
0.0210878
-0.000268171
-0.0129404
-0.0187153
-0.0200358
-0.01742
-0.0113246
-0.00232611
0.00898389
0.0219696
0.0359031
0.0499378
0.0631057
0.0743388
0.0825154
0.086563
0.0857141
0.0794405
0.0656138
0.0430651
0.011137
-0.0136241
-0.027881
-0.0338602
-0.0346095
-0.0308635
-0.023219
-0.0123515
0.00109843
0.0164774
0.033046
0.0499271
0.0660769
0.0802835
0.0911943
0.0974236
0.0978638
0.0916295
0.0758897
0.0491099
-0.00597305
-0.0342725
-0.0498761
-0.0555547
-0.0550962
-0.0495206
-0.0395996
-0.0261195
-0.00976338
0.00881659
0.0288945
0.049587
0.069791
0.0881481
0.103041
0.112695
0.115544
0.110185
0.0928278
0.0614049
-0.0318632
-0.0638822
-0.080423
-0.0850133
-0.0824262
-0.0740844
-0.060987
-0.0440427
-0.0239577
-0.00134316
0.0231392
0.0486546
0.0740892
0.0979658
0.11839
0.133119
0.139982
0.136812
0.118434
0.0819274
-0.0686735
-0.104609
-0.121351
-0.123596
-0.117522
-0.105133
-0.0877244
-0.0663316
-0.0416431
-0.0141617
0.0155994
0.0469469
0.0788494
0.109787
0.137617
0.159579
0.172721
0.173772
0.155514
0.113565
-0.119408
-0.159363
-0.174921
-0.172763
-0.161154
-0.142935
-0.119765
-0.0927831
-0.0625835
-0.0294537
0.00636708
0.0444674
0.084049
0.123697
0.16113
0.19308
0.215662
0.224071
0.208044
0.160626
-0.188634
-0.232248
-0.243944
-0.233954
-0.2137
-0.18716
-0.156378
-0.122507
-0.0859038
-0.046478
-0.00402029
0.041533
0.0898363
0.139823
0.189313
0.234683
0.271069
0.291658
0.281737
0.22977
-0.28398
-0.32931
-0.331837
-0.308285
-0.274714
-0.236445
-0.19577
-0.153616
-0.109846
-0.0637507
-0.0144434
0.0388579
0.0965488
0.158271
0.222369
0.285282
0.341392
0.381569
0.384909
0.331829
-0.419324
-0.459676
-0.442356
-0.395797
-0.342134
-0.287744
-0.234621
-0.182935
-0.131614
-0.07899
-0.0232191
0.0374703
0.104548
0.178833
0.259856
0.344965
0.428611
0.499695
0.52967
0.485386
-0.620536
-0.636748
-0.578682
-0.494198
-0.411245
-0.335663
-0.267785
-0.205982
-0.147541
-0.0893874
-0.0284306
0.0383438
0.113802
0.200467
0.299971
0.412021
0.533025
0.65177
0.732767
0.722391
-0.935928
-0.878519
-0.741746
-0.597953
-0.474397
-0.372663
-0.288872
-0.217767
-0.153957
-0.0924679
-0.0287214
0.0416916
0.123259
0.220714
0.338922
0.482151
0.651993
0.841337
1.01527
1.0975
-1.47643
-1.20663
-0.920507
-0.691392
-0.517309
-0.387548
-0.290065
-0.213341
-0.148128
-0.0872193
-0.0245815
0.0454536
0.128933
0.233067
0.367099
0.542674
0.771289
1.05931
1.40328
1.73014
-2.53965
-1.63055
-1.04444
-0.710962
-0.495754
-0.352097
-0.254534
-0.183587
-0.126173
-0.0735989
-0.0192729
0.042783
0.119208
0.218779
0.354808
0.54798
0.826389
1.23658
1.91167
2.92419
-4.36667
-2.04464
-0.973546
-0.563184
-0.35785
-0.24015
-0.170123
-0.123787
-0.087485
-0.0535141
-0.0166584
0.0276567
0.0846034
0.161726
0.272407
0.442095
0.718215
1.2257
2.41103
4.84853
)
;

boundaryField
{
    movingWall
    {
        type            zeroGradient;
    }
    fixedWalls
    {
        type            zeroGradient;
    }
    frontAndBack
    {
        type            empty;
    }
}


// ************************************************************************* //
