/*--------------------------------*- C++ -*----------------------------------*\
| =========                 |                                                 |
| \\      /  F ield         | OpenFOAM: The Open Source CFD Toolbox           |
|  \\    /   O peration     | Version:  dev                                   |
|   \\  /    A nd           | Web:      www.OpenFOAM.org                      |
|    \\/     M anipulation  |                                                 |
\*---------------------------------------------------------------------------*/
FoamFile
{
    version     2.0;
    format      ascii;
    class       volScalarField;
    location    "10.5";
    object      p;
}
// * * * * * * * * * * * * * * * * * * * * * * * * * * * * * * * * * * * * * //

dimensions      [0 2 -2 0 0 0 0];

internalField   nonuniform List<scalar> 
400
(
8.50825e-08
-0.00582984
-0.0129684
-0.0184209
-0.0204386
-0.018245
-0.0117805
-0.0014903
0.0118308
0.0271427
0.0432381
0.0588169
0.0725726
0.0833026
0.0900469
0.0922611
0.0900198
0.0842378
0.0768745
0.0710609
0.00577625
-0.000223409
-0.00580958
-0.00954849
-0.0106051
-0.00843906
-0.00297637
0.00546767
0.0162964
0.0287053
0.0417434
0.0543797
0.0655803
0.0744039
0.0801143
0.0823098
0.0810713
0.0770487
0.0712679
0.0653116
0.0133299
0.00502828
-0.00100096
-0.00442902
-0.00527907
-0.00327025
0.00159593
0.00902113
0.0184956
0.0293429
0.0407591
0.0518633
0.0617623
0.0696302
0.0748009
0.076872
0.0758356
0.0720798
0.0657992
0.0575291
0.0201341
0.00869046
0.00122018
-0.00267441
-0.00372822
-0.0018916
0.00272485
0.00977809
0.0187739
0.0290886
0.0399856
0.0506477
0.0602266
0.0679097
0.072997
0.0749953
0.0737596
0.0694499
0.0615966
0.0500961
0.0244966
0.00976755
0.000584073
-0.00399276
-0.00530825
-0.00351355
0.00116835
0.00832807
0.0174555
0.0279426
0.0390786
0.0500636
0.0600425
0.0681587
0.07362
0.0757914
0.0743626
0.0692834
0.0595191
0.0445306
0.0251724
0.00714441
-0.00380776
-0.00906303
-0.0105181
-0.00850607
-0.00336309
0.004423
0.0143068
0.0256725
0.0378073
0.0498969
0.0610417
0.0702968
0.0767283
0.0795105
0.0781325
0.0723271
0.0605328
0.0418835
0.0210879
-0.000268073
-0.0129403
-0.0187152
-0.0200357
-0.0174199
-0.0113245
-0.00232599
0.00898399
0.0219697
0.0359031
0.0499379
0.0631058
0.0743389
0.0825155
0.0865631
0.0857143
0.0794406
0.0656139
0.0430652
0.0111371
-0.013624
-0.0278809
-0.0338602
-0.0346094
-0.0308634
-0.0232189
-0.0123513
0.00109855
0.0164775
0.0330461
0.0499272
0.066077
0.0802835
0.0911944
0.0974237
0.0978639
0.0916296
0.0758898
0.04911
-0.00597295
-0.0342723
-0.049876
-0.0555546
-0.0550961
-0.0495206
-0.0395995
-0.0261194
-0.00976326
0.00881671
0.0288946
0.0495871
0.0697911
0.0881482
0.103041
0.112695
0.115544
0.110185
0.0928279
0.061405
-0.0318631
-0.0638821
-0.0804229
-0.0850132
-0.0824262
-0.0740844
-0.0609869
-0.0440426
-0.0239576
-0.00134304
0.0231393
0.0486547
0.0740893
0.0979659
0.11839
0.13312
0.139982
0.136812
0.118434
0.0819275
-0.0686734
-0.104609
-0.12135
-0.123596
-0.117522
-0.105133
-0.0877243
-0.0663315
-0.041643
-0.0141616
0.0155995
0.046947
0.0788495
0.109787
0.137618
0.159579
0.172721
0.173772
0.155514
0.113565
-0.119408
-0.159363
-0.174921
-0.172763
-0.161154
-0.142935
-0.119765
-0.092783
-0.0625834
-0.0294536
0.00636718
0.0444675
0.0840491
0.123697
0.16113
0.19308
0.215662
0.224071
0.208045
0.160627
-0.188634
-0.232248
-0.243944
-0.233954
-0.2137
-0.18716
-0.156378
-0.122507
-0.0859037
-0.0464779
-0.00402021
0.0415331
0.0898364
0.139824
0.189313
0.234683
0.271069
0.291659
0.281737
0.22977
-0.28398
-0.32931
-0.331837
-0.308285
-0.274714
-0.236445
-0.19577
-0.153615
-0.109846
-0.0637506
-0.0144433
0.038858
0.0965489
0.158271
0.222369
0.285282
0.341392
0.38157
0.384909
0.331829
-0.419324
-0.459676
-0.442355
-0.395797
-0.342134
-0.287744
-0.234621
-0.182935
-0.131614
-0.0789899
-0.023219
0.0374703
0.104548
0.178833
0.259856
0.344965
0.428611
0.499695
0.52967
0.485386
-0.620536
-0.636748
-0.578682
-0.494197
-0.411245
-0.335663
-0.267785
-0.205982
-0.147541
-0.0893873
-0.0284305
0.0383439
0.113802
0.200467
0.299971
0.412021
0.533025
0.651771
0.732767
0.722391
-0.935928
-0.878519
-0.741746
-0.597952
-0.474397
-0.372663
-0.288872
-0.217766
-0.153957
-0.0924678
-0.0287213
0.0416917
0.123259
0.220714
0.338922
0.482151
0.651993
0.841338
1.01527
1.0975
-1.47643
-1.20663
-0.920507
-0.691391
-0.517309
-0.387547
-0.290065
-0.213341
-0.148128
-0.0872192
-0.0245814
0.0454537
0.128934
0.233067
0.367099
0.542674
0.771289
1.05931
1.40328
1.73014
-2.53965
-1.63055
-1.04444
-0.710962
-0.495754
-0.352097
-0.254534
-0.183587
-0.126173
-0.0735988
-0.0192728
0.0427831
0.119208
0.218779
0.354808
0.54798
0.826389
1.23658
1.91167
2.92419
-4.36667
-2.04464
-0.973546
-0.563184
-0.35785
-0.24015
-0.170123
-0.123787
-0.0874849
-0.053514
-0.0166583
0.0276568
0.0846035
0.161726
0.272407
0.442095
0.718215
1.2257
2.41103
4.84853
)
;

boundaryField
{
    movingWall
    {
        type            zeroGradient;
    }
    fixedWalls
    {
        type            zeroGradient;
    }
    frontAndBack
    {
        type            empty;
    }
}


// ************************************************************************* //
