/*--------------------------------*- C++ -*----------------------------------*\
| =========                 |                                                 |
| \\      /  F ield         | OpenFOAM: The Open Source CFD Toolbox           |
|  \\    /   O peration     | Version:  dev                                   |
|   \\  /    A nd           | Web:      www.OpenFOAM.org                      |
|    \\/     M anipulation  |                                                 |
\*---------------------------------------------------------------------------*/
FoamFile
{
    version     2.0;
    format      ascii;
    class       volScalarField;
    location    "70.5";
    object      p;
}
// * * * * * * * * * * * * * * * * * * * * * * * * * * * * * * * * * * * * * //

dimensions      [0 2 -2 0 0 0 0];

internalField   nonuniform List<scalar> 
400
(
-4.80313e-10
-0.00582997
-0.0129685
-0.0184211
-0.0204388
-0.0182453
-0.0117807
-0.00149049
0.0118307
0.0271426
0.043238
0.0588167
0.0725724
0.0833023
0.0900467
0.0922609
0.0900197
0.0842377
0.0768745
0.0710609
0.00577609
-0.000223575
-0.00580972
-0.0095486
-0.0106053
-0.00843922
-0.00297658
0.00546743
0.0162962
0.0287051
0.0417433
0.0543796
0.0655802
0.0744037
0.0801141
0.0823096
0.081071
0.0770486
0.0712678
0.0653115
0.0133298
0.00502809
-0.00100114
-0.00442915
-0.00527915
-0.00327034
0.00159578
0.00902091
0.0184953
0.0293426
0.0407589
0.0518632
0.0617622
0.0696301
0.0748008
0.0768718
0.0758353
0.0720795
0.065799
0.057529
0.020134
0.00869027
0.00121996
-0.0026746
-0.00372833
-0.00189167
0.00272478
0.00977794
0.0187737
0.0290883
0.0399853
0.0506475
0.0602265
0.0679097
0.0729969
0.0749952
0.0737594
0.0694496
0.0615964
0.0500959
0.0244965
0.00976739
0.000583848
-0.003993
-0.00530844
-0.00351365
0.00116831
0.00832801
0.0174553
0.0279424
0.0390783
0.0500633
0.0600424
0.0681586
0.07362
0.0757913
0.0743625
0.0692832
0.0595189
0.0445304
0.0251723
0.00714429
-0.00380794
-0.00906328
-0.0105183
-0.00850626
-0.00336318
0.00442296
0.0143068
0.0256724
0.0378071
0.0498966
0.0610415
0.0702966
0.0767281
0.0795104
0.0781324
0.072327
0.0605326
0.0418832
0.0210878
-0.000268157
-0.0129404
-0.0187154
-0.020036
-0.0174202
-0.0113247
-0.00232608
0.00898397
0.0219696
0.035903
0.0499377
0.0631055
0.0743387
0.0825153
0.086563
0.0857142
0.0794405
0.0656137
0.0430649
0.0111369
-0.0136241
-0.027881
-0.0338603
-0.0346097
-0.0308637
-0.0232192
-0.0123515
0.00109846
0.0164774
0.033046
0.049927
0.0660767
0.0802833
0.0911941
0.0974235
0.0978638
0.0916295
0.0758897
0.0491098
-0.0059732
-0.0342725
-0.0498761
-0.0555546
-0.0550962
-0.0495208
-0.0395998
-0.0261196
-0.00976346
0.00881662
0.0288946
0.049587
0.069791
0.088148
0.103041
0.112695
0.115544
0.110185
0.0928278
0.0614049
-0.0318633
-0.0638823
-0.080423
-0.0850132
-0.0824262
-0.0740845
-0.0609871
-0.0440429
-0.0239578
-0.00134325
0.0231392
0.0486546
0.0740892
0.0979658
0.11839
0.133119
0.139982
0.136812
0.118434
0.0819274
-0.0686736
-0.10461
-0.121351
-0.123596
-0.117522
-0.105133
-0.0877244
-0.0663317
-0.0416433
-0.0141619
0.0155993
0.0469469
0.0788495
0.109787
0.137617
0.159579
0.172721
0.173772
0.155514
0.113565
-0.119409
-0.159363
-0.174921
-0.172763
-0.161154
-0.142935
-0.119765
-0.0927831
-0.0625836
-0.0294538
0.00636691
0.0444673
0.084049
0.123697
0.16113
0.19308
0.215662
0.224071
0.208044
0.160626
-0.188634
-0.232248
-0.243945
-0.233954
-0.2137
-0.18716
-0.156378
-0.122507
-0.0859038
-0.0464781
-0.00402045
0.0415328
0.0898362
0.139823
0.189313
0.234683
0.271069
0.291658
0.281737
0.22977
-0.28398
-0.32931
-0.331837
-0.308286
-0.274714
-0.236445
-0.19577
-0.153615
-0.109846
-0.0637507
-0.0144435
0.0388578
0.0965487
0.158271
0.222369
0.285282
0.341392
0.381569
0.384908
0.331828
-0.419324
-0.459676
-0.442356
-0.395797
-0.342134
-0.287744
-0.234621
-0.182935
-0.131614
-0.07899
-0.0232191
0.0374702
0.104548
0.178833
0.259856
0.344965
0.428611
0.499695
0.52967
0.485386
-0.620537
-0.636748
-0.578682
-0.494198
-0.411245
-0.335663
-0.267785
-0.205982
-0.147541
-0.0893875
-0.0284306
0.0383438
0.113802
0.200467
0.29997
0.41202
0.533025
0.65177
0.732767
0.722391
-0.935928
-0.878519
-0.741746
-0.597953
-0.474397
-0.372663
-0.288872
-0.217767
-0.153957
-0.092468
-0.0287214
0.0416915
0.123259
0.220714
0.338922
0.48215
0.651992
0.841337
1.01527
1.0975
-1.47643
-1.20663
-0.920507
-0.691392
-0.517309
-0.387548
-0.290065
-0.213341
-0.148128
-0.0872194
-0.0245816
0.0454535
0.128933
0.233067
0.367099
0.542674
0.771289
1.05931
1.40328
1.73014
-2.53965
-1.63055
-1.04444
-0.710962
-0.495754
-0.352097
-0.254534
-0.183587
-0.126173
-0.073599
-0.019273
0.0427829
0.119208
0.218779
0.354808
0.54798
0.826389
1.23658
1.91167
2.92419
-4.36667
-2.04464
-0.973546
-0.563184
-0.35785
-0.24015
-0.170123
-0.123787
-0.087485
-0.0535142
-0.0166584
0.0276566
0.0846034
0.161725
0.272407
0.442095
0.718215
1.2257
2.41103
4.84853
)
;

boundaryField
{
    movingWall
    {
        type            zeroGradient;
    }
    fixedWalls
    {
        type            zeroGradient;
    }
    frontAndBack
    {
        type            empty;
    }
}


// ************************************************************************* //
