/*--------------------------------*- C++ -*----------------------------------*\
| =========                 |                                                 |
| \\      /  F ield         | OpenFOAM: The Open Source CFD Toolbox           |
|  \\    /   O peration     | Version:  dev                                   |
|   \\  /    A nd           | Web:      www.OpenFOAM.org                      |
|    \\/     M anipulation  |                                                 |
\*---------------------------------------------------------------------------*/
FoamFile
{
    version     2.0;
    format      ascii;
    class       volScalarField;
    location    "56.2";
    object      p;
}
// * * * * * * * * * * * * * * * * * * * * * * * * * * * * * * * * * * * * * //

dimensions      [0 2 -2 0 0 0 0];

internalField   nonuniform List<scalar> 
400
(
4.23664e-10
-0.00582997
-0.0129685
-0.0184211
-0.0204388
-0.0182453
-0.0117807
-0.00149044
0.0118307
0.0271426
0.0432379
0.0588167
0.0725724
0.0833023
0.0900467
0.0922609
0.0900197
0.0842377
0.0768744
0.0710608
0.00577609
-0.000223556
-0.0058097
-0.00954861
-0.0106053
-0.00843926
-0.0029766
0.00546745
0.0162963
0.0287052
0.0417433
0.0543796
0.0655801
0.0744037
0.0801141
0.0823096
0.0810711
0.0770486
0.0712678
0.0653115
0.0133298
0.0050281
-0.0010011
-0.00442912
-0.00527916
-0.00327038
0.00159572
0.00902088
0.0184954
0.0293427
0.0407589
0.0518633
0.0617622
0.0696301
0.0748007
0.0768718
0.0758353
0.0720795
0.0657991
0.057529
0.0201339
0.00869026
0.00121999
-0.00267455
-0.0037283
-0.00189168
0.00272471
0.00977787
0.0187736
0.0290883
0.0399854
0.0506476
0.0602266
0.0679096
0.0729968
0.0749951
0.0737594
0.0694496
0.0615964
0.0500959
0.0244965
0.00976735
0.000583847
-0.00399295
-0.00530837
-0.00351361
0.00116828
0.00832793
0.0174552
0.0279423
0.0390783
0.0500634
0.0600424
0.0681587
0.07362
0.0757913
0.0743625
0.0692832
0.0595189
0.0445304
0.0251723
0.00714424
-0.00380799
-0.00906328
-0.0105183
-0.00850618
-0.00336313
0.00442294
0.0143067
0.0256723
0.0378071
0.0498966
0.0610415
0.0702967
0.0767282
0.0795104
0.0781324
0.0723269
0.0605326
0.0418832
0.0210878
-0.000268187
-0.0129405
-0.0187154
-0.020036
-0.0174201
-0.0113246
-0.00232603
0.00898394
0.0219696
0.0359029
0.0499376
0.0631055
0.0743387
0.0825154
0.086563
0.0857142
0.0794405
0.0656137
0.0430649
0.011137
-0.0136241
-0.0278811
-0.0338604
-0.0346097
-0.0308637
-0.0232191
-0.0123514
0.00109851
0.0164774
0.0330459
0.049927
0.0660767
0.0802833
0.0911942
0.0974235
0.0978638
0.0916295
0.0758897
0.0491098
-0.00597314
-0.0342724
-0.0498761
-0.0555547
-0.0550963
-0.0495208
-0.0395998
-0.0261196
-0.00976337
0.00881666
0.0288946
0.049587
0.0697909
0.088148
0.103041
0.112695
0.115544
0.110185
0.0928278
0.0614049
-0.0318633
-0.0638822
-0.080423
-0.0850132
-0.0824263
-0.0740846
-0.0609872
-0.0440429
-0.0239578
-0.00134316
0.0231393
0.0486546
0.0740892
0.0979658
0.118389
0.133119
0.139982
0.136812
0.118434
0.0819274
-0.0686736
-0.10461
-0.121351
-0.123596
-0.117522
-0.105133
-0.0877245
-0.0663318
-0.0416433
-0.0141619
0.0155993
0.046947
0.0788495
0.109787
0.137617
0.159579
0.172721
0.173772
0.155514
0.113565
-0.119409
-0.159363
-0.174921
-0.172763
-0.161154
-0.142935
-0.119765
-0.0927832
-0.0625836
-0.0294538
0.00636696
0.0444674
0.084049
0.123697
0.16113
0.19308
0.215662
0.224071
0.208044
0.160626
-0.188634
-0.232248
-0.243945
-0.233954
-0.2137
-0.18716
-0.156378
-0.122507
-0.0859039
-0.0464782
-0.00402046
0.0415329
0.0898362
0.139823
0.189313
0.234683
0.271069
0.291658
0.281737
0.22977
-0.28398
-0.32931
-0.331837
-0.308286
-0.274714
-0.236445
-0.19577
-0.153615
-0.109846
-0.0637508
-0.0144435
0.0388578
0.0965487
0.158271
0.222369
0.285282
0.341392
0.381569
0.384908
0.331828
-0.419324
-0.459676
-0.442356
-0.395797
-0.342134
-0.287744
-0.234621
-0.182935
-0.131614
-0.07899
-0.0232191
0.0374702
0.104548
0.178833
0.259856
0.344965
0.428611
0.499695
0.52967
0.485386
-0.620536
-0.636748
-0.578682
-0.494198
-0.411245
-0.335663
-0.267785
-0.205982
-0.147541
-0.0893874
-0.0284306
0.0383437
0.113802
0.200467
0.29997
0.41202
0.533025
0.65177
0.732767
0.722391
-0.935928
-0.878519
-0.741746
-0.597953
-0.474397
-0.372663
-0.288873
-0.217767
-0.153957
-0.092468
-0.0287214
0.0416916
0.123259
0.220714
0.338922
0.48215
0.651992
0.841337
1.01527
1.0975
-1.47643
-1.20663
-0.920507
-0.691392
-0.517309
-0.387548
-0.290065
-0.213341
-0.148128
-0.0872194
-0.0245816
0.0454535
0.128933
0.233067
0.367099
0.542674
0.771289
1.05931
1.40328
1.73014
-2.53965
-1.63055
-1.04444
-0.710962
-0.495754
-0.352097
-0.254534
-0.183587
-0.126173
-0.073599
-0.019273
0.0427829
0.119208
0.218779
0.354808
0.54798
0.826389
1.23658
1.91167
2.92419
-4.36667
-2.04464
-0.973546
-0.563184
-0.35785
-0.24015
-0.170123
-0.123787
-0.0874851
-0.0535142
-0.0166585
0.0276566
0.0846033
0.161725
0.272407
0.442095
0.718215
1.2257
2.41103
4.84853
)
;

boundaryField
{
    movingWall
    {
        type            zeroGradient;
    }
    fixedWalls
    {
        type            zeroGradient;
    }
    frontAndBack
    {
        type            empty;
    }
}


// ************************************************************************* //
