/*--------------------------------*- C++ -*----------------------------------*\
| =========                 |                                                 |
| \\      /  F ield         | OpenFOAM: The Open Source CFD Toolbox           |
|  \\    /   O peration     | Version:  dev                                   |
|   \\  /    A nd           | Web:      www.OpenFOAM.org                      |
|    \\/     M anipulation  |                                                 |
\*---------------------------------------------------------------------------*/
FoamFile
{
    version     2.0;
    format      ascii;
    class       volScalarField;
    location    "10.8";
    object      p;
}
// * * * * * * * * * * * * * * * * * * * * * * * * * * * * * * * * * * * * * //

dimensions      [0 2 -2 0 0 0 0];

internalField   nonuniform List<scalar> 
400
(
7.56334e-08
-0.00582984
-0.0129684
-0.0184209
-0.0204387
-0.0182451
-0.0117806
-0.0014903
0.0118309
0.0271427
0.0432381
0.0588168
0.0725725
0.0833025
0.0900469
0.0922611
0.0900199
0.0842379
0.0768746
0.071061
0.00577622
-0.000223424
-0.00580957
-0.00954847
-0.0106051
-0.00843911
-0.00297645
0.00546759
0.0162964
0.0287053
0.0417435
0.0543797
0.0655803
0.0744038
0.0801142
0.0823097
0.0810712
0.0770487
0.0712679
0.0653116
0.0133299
0.00502824
-0.00100097
-0.00442899
-0.00527902
-0.00327023
0.00159588
0.00902103
0.0184955
0.0293428
0.0407591
0.0518634
0.0617623
0.0696302
0.0748009
0.0768719
0.0758355
0.0720797
0.0657992
0.0575292
0.0201341
0.0086904
0.00122013
-0.00267442
-0.00372817
-0.00189154
0.00272487
0.00977803
0.0187738
0.0290885
0.0399855
0.0506477
0.0602267
0.0679098
0.072997
0.0749953
0.0737595
0.0694498
0.0615966
0.0500961
0.0244966
0.0097675
0.00058399
-0.00399282
-0.00530825
-0.00351349
0.00116843
0.00832809
0.0174554
0.0279425
0.0390785
0.0500635
0.0600426
0.0681588
0.0736201
0.0757914
0.0743626
0.0692834
0.0595191
0.0445305
0.0251724
0.0071444
-0.00380783
-0.00906314
-0.0105182
-0.00850606
-0.00336301
0.00442308
0.0143069
0.0256724
0.0378072
0.0498968
0.0610417
0.0702968
0.0767283
0.0795105
0.0781325
0.0723271
0.0605327
0.0418834
0.021088
-0.000268036
-0.0129403
-0.0187153
-0.0200358
-0.01742
-0.0113245
-0.00232591
0.00898408
0.0219697
0.0359031
0.0499378
0.0631057
0.0743388
0.0825155
0.0865631
0.0857143
0.0794406
0.0656138
0.0430651
0.0111371
-0.0136239
-0.0278809
-0.0338602
-0.0346095
-0.0308636
-0.023219
-0.0123513
0.00109863
0.0164776
0.0330461
0.0499271
0.0660769
0.0802834
0.0911943
0.0974237
0.0978639
0.0916297
0.0758898
0.04911
-0.00597302
-0.0342723
-0.0498759
-0.0555545
-0.0550962
-0.0495207
-0.0395996
-0.0261194
-0.00976325
0.00881679
0.0288947
0.0495871
0.0697911
0.0881481
0.103041
0.112695
0.115544
0.110186
0.0928279
0.061405
-0.0318632
-0.0638821
-0.0804228
-0.0850131
-0.0824261
-0.0740844
-0.060987
-0.0440428
-0.0239576
-0.00134304
0.0231394
0.0486548
0.0740893
0.0979659
0.11839
0.133119
0.139982
0.136812
0.118434
0.0819275
-0.0686735
-0.104609
-0.12135
-0.123596
-0.117521
-0.105133
-0.0877243
-0.0663316
-0.0416431
-0.0141617
0.0155995
0.0469471
0.0788496
0.109787
0.137618
0.159579
0.172721
0.173772
0.155514
0.113565
-0.119408
-0.159363
-0.174921
-0.172763
-0.161154
-0.142935
-0.119765
-0.092783
-0.0625835
-0.0294537
0.00636709
0.0444675
0.0840491
0.123697
0.16113
0.19308
0.215662
0.224071
0.208045
0.160627
-0.188634
-0.232248
-0.243944
-0.233954
-0.2137
-0.18716
-0.156378
-0.122507
-0.0859037
-0.046478
-0.00402031
0.041533
0.0898363
0.139824
0.189313
0.234683
0.271069
0.291659
0.281737
0.22977
-0.28398
-0.32931
-0.331837
-0.308285
-0.274714
-0.236445
-0.19577
-0.153615
-0.109845
-0.0637506
-0.0144434
0.0388579
0.0965488
0.158271
0.222369
0.285283
0.341392
0.38157
0.384909
0.331829
-0.419324
-0.459676
-0.442356
-0.395797
-0.342134
-0.287744
-0.234621
-0.182935
-0.131614
-0.0789899
-0.023219
0.0374703
0.104548
0.178833
0.259856
0.344965
0.428611
0.499695
0.52967
0.485386
-0.620536
-0.636748
-0.578682
-0.494197
-0.411245
-0.335663
-0.267785
-0.205982
-0.147541
-0.0893873
-0.0284304
0.0383439
0.113802
0.200467
0.299971
0.412021
0.533025
0.651771
0.732767
0.722391
-0.935928
-0.878519
-0.741745
-0.597952
-0.474397
-0.372663
-0.288872
-0.217767
-0.153957
-0.0924678
-0.0287213
0.0416917
0.123259
0.220714
0.338922
0.482151
0.651993
0.841338
1.01527
1.0975
-1.47643
-1.20663
-0.920507
-0.691391
-0.517308
-0.387547
-0.290065
-0.213341
-0.148128
-0.0872193
-0.0245814
0.0454537
0.128934
0.233067
0.367099
0.542674
0.771289
1.05931
1.40328
1.73014
-2.53965
-1.63055
-1.04444
-0.710962
-0.495754
-0.352097
-0.254534
-0.183587
-0.126173
-0.0735989
-0.0192729
0.042783
0.119208
0.218779
0.354808
0.54798
0.826389
1.23658
1.91167
2.92419
-4.36667
-2.04464
-0.973546
-0.563184
-0.35785
-0.24015
-0.170123
-0.123786
-0.0874849
-0.053514
-0.0166583
0.0276567
0.0846035
0.161726
0.272407
0.442095
0.718215
1.2257
2.41103
4.84853
)
;

boundaryField
{
    movingWall
    {
        type            zeroGradient;
    }
    fixedWalls
    {
        type            zeroGradient;
    }
    frontAndBack
    {
        type            empty;
    }
}


// ************************************************************************* //
