/*--------------------------------*- C++ -*----------------------------------*\
| =========                 |                                                 |
| \\      /  F ield         | OpenFOAM: The Open Source CFD Toolbox           |
|  \\    /   O peration     | Version:  dev                                   |
|   \\  /    A nd           | Web:      www.OpenFOAM.org                      |
|    \\/     M anipulation  |                                                 |
\*---------------------------------------------------------------------------*/
FoamFile
{
    version     2.0;
    format      ascii;
    class       volScalarField;
    location    "67.3";
    object      p;
}
// * * * * * * * * * * * * * * * * * * * * * * * * * * * * * * * * * * * * * //

dimensions      [0 2 -2 0 0 0 0];

internalField   nonuniform List<scalar> 
400
(
8.41065e-10
-0.00582998
-0.0129685
-0.0184211
-0.0204388
-0.0182452
-0.0117807
-0.00149045
0.0118307
0.0271425
0.0432379
0.0588167
0.0725725
0.0833024
0.0900468
0.0922609
0.0900197
0.0842376
0.0768743
0.0710607
0.0057761
-0.000223557
-0.00580973
-0.00954865
-0.0106053
-0.00843924
-0.00297654
0.0054675
0.0162963
0.0287051
0.0417433
0.0543795
0.0655801
0.0744037
0.0801141
0.0823096
0.0810711
0.0770486
0.0712678
0.0653114
0.0133298
0.00502812
-0.00100111
-0.00442916
-0.00527922
-0.00327041
0.00159575
0.00902095
0.0184954
0.0293427
0.0407589
0.0518632
0.0617621
0.06963
0.0748007
0.0768718
0.0758354
0.0720796
0.0657991
0.057529
0.0201339
0.0086903
0.00122002
-0.00267456
-0.00372836
-0.00189175
0.00272468
0.00977791
0.0187737
0.0290884
0.0399854
0.0506475
0.0602265
0.0679095
0.0729968
0.0749951
0.0737594
0.0694497
0.0615965
0.0500959
0.0244964
0.00976738
0.000583906
-0.00399292
-0.0053084
-0.00351369
0.0011682
0.0083279
0.0174553
0.0279424
0.0390784
0.0500634
0.0600424
0.0681586
0.0736199
0.0757912
0.0743625
0.0692833
0.059519
0.0445304
0.0251722
0.00714424
-0.00380794
-0.0090632
-0.0105182
-0.00850621
-0.00336323
0.00442284
0.0143067
0.0256723
0.0378072
0.0498967
0.0610416
0.0702966
0.0767281
0.0795103
0.0781323
0.0723269
0.0605326
0.0418833
0.0210878
-0.000268231
-0.0129405
-0.0187154
-0.0200359
-0.0174201
-0.0113246
-0.00232613
0.00898384
0.0219695
0.035903
0.0499377
0.0631056
0.0743388
0.0825154
0.0865629
0.0857141
0.0794405
0.0656137
0.043065
0.011137
-0.0136241
-0.0278811
-0.0338603
-0.0346096
-0.0308636
-0.023219
-0.0123515
0.00109841
0.0164773
0.0330459
0.049927
0.0660768
0.0802834
0.0911942
0.0974235
0.0978637
0.0916295
0.0758897
0.0491098
-0.0059731
-0.0342725
-0.0498761
-0.0555548
-0.0550963
-0.0495207
-0.0395996
-0.0261195
-0.0097634
0.00881657
0.0288945
0.0495869
0.0697909
0.088148
0.103041
0.112695
0.115544
0.110185
0.0928277
0.0614048
-0.0318632
-0.0638822
-0.080423
-0.0850133
-0.0824263
-0.0740845
-0.0609871
-0.0440428
-0.0239577
-0.00134318
0.0231392
0.0486545
0.0740891
0.0979658
0.11839
0.133119
0.139982
0.136812
0.118434
0.0819273
-0.0686736
-0.104609
-0.121351
-0.123596
-0.117522
-0.105133
-0.0877245
-0.0663317
-0.0416432
-0.0141618
0.0155993
0.0469469
0.0788494
0.109787
0.137617
0.159579
0.172721
0.173772
0.155514
0.113565
-0.119409
-0.159363
-0.174921
-0.172763
-0.161154
-0.142935
-0.119765
-0.0927832
-0.0625836
-0.0294538
0.00636702
0.0444674
0.084049
0.123697
0.16113
0.19308
0.215662
0.224071
0.208044
0.160626
-0.188634
-0.232248
-0.243945
-0.233954
-0.2137
-0.18716
-0.156378
-0.122507
-0.0859039
-0.0464781
-0.00402038
0.0415329
0.0898362
0.139823
0.189313
0.234683
0.271069
0.291658
0.281737
0.22977
-0.28398
-0.32931
-0.331837
-0.308286
-0.274714
-0.236445
-0.19577
-0.153616
-0.109846
-0.0637508
-0.0144435
0.0388578
0.0965487
0.158271
0.222369
0.285282
0.341392
0.381569
0.384908
0.331828
-0.419324
-0.459676
-0.442356
-0.395797
-0.342134
-0.287744
-0.234621
-0.182935
-0.131614
-0.0789901
-0.0232191
0.0374702
0.104548
0.178833
0.259856
0.344965
0.428611
0.499695
0.52967
0.485386
-0.620536
-0.636749
-0.578682
-0.494198
-0.411245
-0.335663
-0.267785
-0.205982
-0.147541
-0.0893875
-0.0284306
0.0383437
0.113802
0.200467
0.29997
0.41202
0.533025
0.65177
0.732767
0.722391
-0.935928
-0.878519
-0.741746
-0.597953
-0.474397
-0.372663
-0.288872
-0.217767
-0.153957
-0.092468
-0.0287214
0.0416915
0.123259
0.220714
0.338922
0.48215
0.651992
0.841337
1.01527
1.0975
-1.47643
-1.20663
-0.920507
-0.691392
-0.517309
-0.387548
-0.290065
-0.213341
-0.148128
-0.0872194
-0.0245815
0.0454535
0.128933
0.233067
0.367099
0.542674
0.771289
1.05931
1.40328
1.73014
-2.53965
-1.63055
-1.04444
-0.710962
-0.495754
-0.352097
-0.254534
-0.183587
-0.126173
-0.073599
-0.019273
0.0427829
0.119208
0.218779
0.354808
0.54798
0.826389
1.23658
1.91167
2.92419
-4.36667
-2.04464
-0.973546
-0.563184
-0.35785
-0.24015
-0.170123
-0.123787
-0.0874851
-0.0535142
-0.0166585
0.0276566
0.0846034
0.161725
0.272407
0.442095
0.718215
1.2257
2.41103
4.84853
)
;

boundaryField
{
    movingWall
    {
        type            zeroGradient;
    }
    fixedWalls
    {
        type            zeroGradient;
    }
    frontAndBack
    {
        type            empty;
    }
}


// ************************************************************************* //
